 LAMMPS data file for protein binding

       185   atoms
       184   bonds
 
          20   atom types
           1   bond types
 
  -100.000000       300.000000        xlo xhi
  -100.000000       300.000000        ylo yhi
  -100.000000       300.000000        zlo zhi
 
 Masses
 
           1   131.199997    
           2   129.100006    
           3   87.0800018    
           4   114.099998    
           5   128.100006    
           6   57.0499992    
           7   71.0800018    
           8   113.199997    
           9   156.199997    
          10   163.199997    
          11   99.0699997    
          12   97.1200027    
          13   137.100006    
          14   115.099998    
          15   147.199997
	  16   101.100000
	  17   128.200000
	  18   113.200000
	  19   186.200000
   20   103.100000
 
 Atoms

1 1 1 1.000000 1.451000 0.000000 0.000000
2 1 13 0.500000 1.565000 3.700000 -0.997000
3 1 13 0.500000 -0.166000 4.522000 2.328000
4 1 13 0.500000 2.507000 2.350000 4.017000
5 1 13 0.500000 5.068000 4.367000 1.984000
6 1 13 0.500000 3.334000 7.545000 3.233000
7 1 13 0.500000 3.632000 6.069000 6.761000
8 1 12 0.000000 7.320000 5.416000 5.901000
9 1 6 0.000000 7.434000 9.070000 4.718000
10 1 7 0.000000 5.874000 10.186000 8.019000
11 1 12 0.000000 8.535000 8.218000 9.923000
12 1 7 0.000000 11.119000 9.984000 7.706000
13 1 5 0.000000 9.505000 13.348000 8.519000
14 1 16 0.000000 9.748000 12.277000 12.202000
15 1 12 0.000000 13.485000 11.271000 11.977000
16 1 3 0.000000 14.648000 14.652000 10.479000
17 1 3 0.000000 12.951000 16.383000 13.448000
18 1 5 0.000000 14.917000 13.935000 15.663000
19 1 10 0.000000 18.170000 14.805000 13.809000
20 1 6 0.000000 17.508000 18.519000 14.396000
21 1 7 0.000000 16.999000 17.823000 18.115000
22 1 12 0.000000 20.319000 15.888000 18.234000
23 1 7 0.000000 21.951000 18.904000 16.512000
24 1 5 0.000000 20.294000 21.065000 19.206000
25 1 16 0.000000 21.604000 18.716000 21.943000
26 1 12 0.000000 25.148000 18.884000 20.483000
27 1 3 0.000000 24.961000 22.712000 20.611000
28 1 3 0.000000 23.920000 22.345000 24.280000
29 1 5 0.000000 26.885000 19.981000 24.913000
30 1 10 0.000000 29.250000 22.530000 23.335000
31 1 6 0.000000 27.831000 25.238000 25.623000
32 1 7 0.000000 28.406000 22.754000 28.502000
33 1 12 0.000000 31.984000 22.178000 27.301000
34 1 7 0.000000 32.570000 25.951000 27.292000
35 1 5 0.000000 31.252000 26.454000 30.903000
36 1 16 0.000000 33.529000 23.733000 32.467000
37 1 12 0.000000 36.826000 25.220000 31.072000
38 1 3 0.000000 36.244000 28.757000 32.550000
39 1 3 0.000000 35.723000 27.514000 36.185000
40 1 5 0.000000 39.092000 25.708000 35.868000
41 1 10 0.000000 41.004000 28.859000 34.667000
42 1 6 0.000000 39.712000 30.824000 37.676000
43 1 7 0.000000 41.008000 28.084000 39.998000
44 1 12 0.000000 44.325000 28.368000 38.074000
45 1 7 0.000000 44.032000 32.169000 38.583000
46 1 5 0.000000 43.446000 31.671000 42.349000
47 1 16 0.000000 46.599000 29.486000 42.592000
48 1 12 0.000000 48.621000 32.216000 40.849000
49 1 3 0.000000 47.295000 34.774000 43.355000
50 1 3 0.000000 48.227000 32.643000 46.457000
51 1 5 0.000000 51.803000 32.280000 45.168000
52 1 10 0.000000 52.043000 36.075000 44.818000
53 1 6 0.000000 50.797000 36.467000 48.406000
54 1 7 0.000000 53.444000 33.978000 49.579000
55 1 12 0.000000 56.012000 36.058000 47.630000
56 1 7 0.000000 54.729000 39.273000 49.302000
57 1 5 0.000000 55.075000 37.654000 52.771000
58 1 16 0.000000 58.676000 36.683000 51.955000
59 1 12 0.000000 59.397000 40.289000 50.925000
60 1 3 0.000000 57.913000 41.509000 54.225000
61 1 3 0.000000 60.190000 38.911000 55.908000
62 1 5 0.000000 63.050000 40.338000 53.786000
63 1 10 0.000000 62.136000 43.861000 54.941000
64 1 6 0.000000 62.210000 42.673000 58.569000
65 1 7 0.000000 65.658000 41.143000 57.980000
66 1 12 0.000000 66.855000 44.452000 56.498000
67 1 7 0.000000 65.520000 46.289000 59.568000
68 1 5 0.000000 67.386000 43.839000 61.824000
69 1 16 0.000000 70.584000 44.467000 59.834000
70 1 12 0.000000 69.925000 48.219000 60.297000
71 1 3 0.000000 69.402000 47.420000 64.022000
72 1 3 0.000000 72.710000 45.465000 64.120000
73 1 5 0.000000 74.522000 48.462000 62.598000
74 1 10 0.000000 72.894000 50.611000 65.328000
75 1 6 0.000000 74.124000 47.943000 67.805000
76 1 7 0.000000 77.546000 48.258000 66.079000
77 1 12 0.000000 77.159000 52.054000 66.532000
78 1 7 0.000000 76.351000 51.569000 70.259000
79 1 5 0.000000 79.521000 49.398000 70.419000
80 1 16 0.000000 81.314000 52.284000 68.619000
81 1 12 0.000000 79.961000 54.798000 71.193000
82 1 3 0.000000 81.313000 52.408000 73.885000
83 1 3 0.000000 84.608000 52.426000 71.908000
84 1 5 0.000000 84.601000 56.270000 71.851000
85 1 10 0.000000 84.114000 56.321000 75.638000
86 1 6 0.000000 87.080000 53.950000 76.035000
87 1 7 0.000000 89.032000 56.359000 73.777000
88 1 12 0.000000 87.925000 59.289000 75.960000
89 1 7 0.000000 89.125000 57.411000 79.060000
90 1 5 0.000000 92.440000 56.838000 77.214000
91 1 16 0.000000 92.615000 60.562000 76.391000
92 1 12 0.000000 92.021000 61.433000 80.088000
93 1 3 0.000000 94.833000 58.933000 80.883000
94 1 3 0.000000 97.131000 60.620000 78.304000
95 1 5 0.000000 96.273000 63.923000 80.069000
96 1 10 0.000000 97.145000 62.194000 83.382000
97 1 6 0.000000 100.445000 61.064000 81.782000
98 1 7 0.000000 100.889000 64.726000 80.694000
99 1 12 0.000000 100.167000 65.930000 84.273000
100 1 7 0.000000 102.830000 63.543000 85.610000
101 1 5 0.000000 105.216000 65.017000 82.990000
102 1 16 0.000000 104.081000 68.460000 84.266000
103 1 12 0.000000 104.774000 67.356000 87.855000
104 1 3 0.000000 108.274000 66.239000 86.818000
105 1 3 0.000000 108.856000 69.640000 85.183000
106 1 5 0.000000 107.724000 71.360000 88.398000
107 1 10 0.000000 110.153000 69.193000 90.393000
108 1 6 0.000000 112.962000 70.163000 87.995000
109 1 7 0.000000 112.066000 73.845000 88.464000
110 1 12 0.000000 112.169000 73.119000 92.236000
111 1 7 0.000000 115.597000 71.420000 91.858000
112 1 5 0.000000 116.909000 74.488000 90.002000
113 1 16 0.000000 115.559000 76.604000 92.905000
114 1 12 0.000000 117.365000 74.123000 95.217000
115 1 3 0.000000 120.439000 74.650000 92.973000
116 1 3 0.000000 119.799000 78.415000 93.403000
117 1 5 0.000000 119.592000 77.985000 97.218000
118 1 10 0.000000 122.935000 76.142000 97.189000
119 1 6 0.000000 124.479000 79.008000 95.194000
120 1 7 0.000000 123.116000 81.497000 97.749000
121 1 12 0.000000 124.642000 79.417000 100.564000
122 1 7 0.000000 127.992000 79.427000 98.732000
123 1 5 0.000000 127.770000 83.223000 98.382000
124 1 16 0.000000 127.027000 83.351000 102.145000
125 1 12 0.000000 130.081000 81.057000 102.567000
126 1 3 0.000000 132.200000 83.408000 100.385000
127 1 3 0.000000 131.040000 86.289000 102.626000
128 1 5 0.000000 132.061000 84.065000 105.593000
129 1 10 0.000000 135.490000 83.407000 103.986000
130 1 6 0.000000 136.019000 87.167000 103.584000
131 1 7 0.000000 135.054000 87.446000 107.296000
132 1 12 0.000000 137.553000 84.691000 108.161000
133 1 7 0.000000 140.278000 86.597000 106.285000
134 1 5 0.000000 139.218000 89.677000 108.312000
135 1 16 0.000000 139.441000 87.448000 111.426000
136 1 12 0.000000 142.901000 86.405000 110.121000
137 1 3 0.000000 143.693000 90.139000 109.704000
138 1 3 0.000000 142.473000 90.583000 113.313000
139 1 5 0.000000 144.725000 87.689000 114.467000
140 1 10 0.000000 147.711000 89.330000 112.744000
141 1 6 0.000000 146.929000 92.605000 114.546000
142 1 7 0.000000 146.780000 90.576000 117.799000
143 1 12 0.000000 150.142000 89.066000 116.712000
144 1 7 0.000000 151.281000 92.682000 116.083000
145 1 5 0.000000 150.073000 93.714000 119.583000
146 1 16 0.000000 152.082000 90.712000 120.903000
147 1 12 0.000000 155.088000 91.966000 118.873000
148 1 3 0.000000 154.684000 95.428000 120.433000
149 1 3 0.000000 154.607000 93.651000 123.831000
150 1 5 0.000000 157.748000 91.773000 122.649000
151 1 10 0.000000 159.151000 95.217000 121.680000
152 1 6 0.000000 158.308000 96.589000 125.170000
153 1 7 0.000000 160.148000 93.649000 126.767000
154 1 12 0.000000 163.090000 94.518000 124.465000
155 1 7 0.000000 162.868000 98.166000 125.572000
156 1 5 0.000000 162.921000 97.077000 129.258000
157 1 16 0.000000 166.005000 94.972000 128.382000
158 1 12 0.000000 167.470000 98.109000 126.727000
159 1 3 0.000000 166.563000 99.939000 129.982000
160 1 3 0.000000 168.308000 97.042000 131.806000
161 1 5 0.000000 171.240000 97.591000 129.379000
162 1 10 0.000000 171.260000 101.352000 130.172000
163 1 6 0.000000 171.415000 100.597000 133.938000
164 1 7 0.000000 174.348000 98.253000 133.107000
165 1 12 0.000000 175.818000 101.191000 131.112000
166 1 7 0.000000 175.349000 103.475000 134.135000
167 1 5 0.000000 177.177000 100.932000 136.319000
168 1 16 0.000000 179.895000 100.924000 133.599000
169 1 12 0.000000 179.895000 100.924000 133.590000
170 1 3 0.000000 180.009000 104.624000 132.593000
171 1 3 0.000000 178.278000 105.446000 135.918000
172 1 5 0.000000 180.951000 103.274000 137.607000
173 1 10 0.000000 183.512000 105.291000 135.574000
174 1 6 0.000000 181.778000 108.469000 136.823000
175 1 7 0.000000 182.076000 106.993000 140.351000
176 1 12 0.000000 185.764000 106.340000 139.491000
177 1 7 0.000000 185.878000 109.994000 138.308000
178 1 5 0.000000 184.318000 111.110000 141.609000
179 1 16 0.000000 186.979000 109.142000 143.513000
180 1 12 0.000000 189.563000 110.908000 141.296000
181 1 3 0.000000 187.949000 114.272000 142.109000
182 1 3 0.000000 188.192000 113.201000 145.792000
183 1 5 0.000000 191.929000 112.195000 145.567000
184 1 10 0.000000 193.092000 115.576000 144.069000
185 1 11 -1.000000 191.395000 117.307000 147.038000

  Bonds

1 1 1 2
2 1 2 3
3 1 3 4
4 1 4 5
5 1 5 6
6 1 6 7
7 1 7 8
8 1 8 9
9 1 9 10
10 1 10 11
11 1 11 12
12 1 12 13
13 1 13 14
14 1 14 15
15 1 15 16
16 1 16 17
17 1 17 18
18 1 18 19
19 1 19 20
20 1 20 21
21 1 21 22
22 1 22 23
23 1 23 24
24 1 24 25
25 1 25 26
26 1 26 27
27 1 27 28
28 1 28 29
29 1 29 30
30 1 30 31
31 1 31 32
32 1 32 33
33 1 33 34
34 1 34 35
35 1 35 36
36 1 36 37
37 1 37 38
38 1 38 39
39 1 39 40
40 1 40 41
41 1 41 42
42 1 42 43
43 1 43 44
44 1 44 45
45 1 45 46
46 1 46 47
47 1 47 48
48 1 48 49
49 1 49 50
50 1 50 51
51 1 51 52
52 1 52 53
53 1 53 54
54 1 54 55
55 1 55 56
56 1 56 57
57 1 57 58
58 1 58 59
59 1 59 60
60 1 60 61
61 1 61 62
62 1 62 63
63 1 63 64
64 1 64 65
65 1 65 66
66 1 66 67
67 1 67 68
68 1 68 69
69 1 69 70
70 1 70 71
71 1 71 72
72 1 72 73
73 1 73 74
74 1 74 75
75 1 75 76
76 1 76 77
77 1 77 78
78 1 78 79
79 1 79 80
80 1 80 81
81 1 81 82
82 1 82 83
83 1 83 84
84 1 84 85
85 1 85 86
86 1 86 87
87 1 87 88
88 1 88 89
89 1 89 90
90 1 90 91
91 1 91 92
92 1 92 93
93 1 93 94
94 1 94 95
95 1 95 96
96 1 96 97
97 1 97 98
98 1 98 99
99 1 99 100
100 1 100 101
101 1 101 102
102 1 102 103
103 1 103 104
104 1 104 105
105 1 105 106
106 1 106 107
107 1 107 108
108 1 108 109
109 1 109 110
110 1 110 111
111 1 111 112
112 1 112 113
113 1 113 114
114 1 114 115
115 1 115 116
116 1 116 117
117 1 117 118
118 1 118 119
119 1 119 120
120 1 120 121
121 1 121 122
122 1 122 123
123 1 123 124
124 1 124 125
125 1 125 126
126 1 126 127
127 1 127 128
128 1 128 129
129 1 129 130
130 1 130 131
131 1 131 132
132 1 132 133
133 1 133 134
134 1 134 135
135 1 135 136
136 1 136 137
137 1 137 138
138 1 138 139
139 1 139 140
140 1 140 141
141 1 141 142
142 1 142 143
143 1 143 144
144 1 144 145
145 1 145 146
146 1 146 147
147 1 147 148
148 1 148 149
149 1 149 150
150 1 150 151
151 1 151 152
152 1 152 153
153 1 153 154
154 1 154 155
155 1 155 156
156 1 156 157
157 1 157 158
158 1 158 159
159 1 159 160
160 1 160 161
161 1 161 162
162 1 162 163
163 1 163 164
164 1 164 165
165 1 165 166
166 1 166 167
167 1 167 168
168 1 168 169
169 1 169 170
170 1 170 171
171 1 171 172
172 1 172 173
173 1 173 174
174 1 174 175
175 1 175 176
176 1 176 177
177 1 177 178
178 1 178 179
179 1 179 180
180 1 180 181
181 1 181 182
182 1 182 183
183 1 183 184
184 1 184 185
